prod_973_NVT10ps0point5fs_fromNVE10ps_a 
           1
    14.235000    0.000000    0.000000
     0.000000   14.215000    0.000000
     0.000000    0.000000   14.212000
   Mg   K    Na   Cl
  15   9  10  49
Direct configuration=     1
   0.84796924  0.60535340  0.67338411
   0.48001542  0.87672068  0.88539515
   0.39531344  0.34149801  0.28672210
   0.54190933  0.76477335  0.33770971
   0.22702645  0.52179216  0.18873363
   0.66418986  0.35852538  0.68683085
   0.07578845  0.76512439  0.30838393
   0.80068001  0.96797463  0.28124788
   0.97007300  0.01634480  0.96884649
   0.15714894  0.38741036  0.71951985
   0.52999590  0.16113177  0.89589689
   0.91029793  0.80354734  0.51592233
   0.90368591  0.45650941  0.12499117
   0.26108869  0.90949355  0.46330045
   0.33490725  0.64870398  0.78890003
   0.29451964  0.53342690  0.48234344
   0.58833939  0.73561758  0.57835848
   0.06929506  0.27279981  0.34499193
   0.94820276  0.18056284  0.62777249
   0.22682796  0.77658800  0.05642211
   0.67379832  0.45931391  0.40276517
   0.77170380  0.24255286  0.21915454
   0.43994873  0.09330172  0.17346616
   0.48063866  0.43848371  0.00626781
   0.08615410  0.43065757  0.98674596
   0.11228446  0.82256444  0.74386988
   0.71028533  0.92851600  0.98536603
   0.97850246  0.60499064  0.84435757
   0.29607075  0.23964487  0.56859627
   0.21292492  0.10837868  0.81618876
   0.84813056  0.86977621  0.73644829
   0.56029593  0.11827087  0.45301291
   0.71200794  0.63528959  0.00715826
   0.81011518  0.23283385  0.91250632
   0.47675515  0.64820551  0.90046722
   0.02973499  0.70042665  0.45819112
   0.98174836  0.10224094  0.10129237
   0.48363773  0.04420461  0.78903518
   0.15560507  0.13420905  0.63599144
   0.94125848  0.58110649  0.00483024
   0.80747414  0.65111264  0.82401178
   0.90771955  0.33307671  0.02618339
   0.96314747  0.76610310  0.67935603
   0.87970644  0.43056342  0.28870727
   0.66798529  0.89213285  0.38989327
   0.32087297  0.39798490  0.71884832
   0.08630471  0.43533305  0.20619224
   0.18078137  0.90627521  0.30634286
   0.04203386  0.72307574  0.16245181
   0.67206815  0.11776208  0.98781107
   0.11998647  0.97514357  0.90969328
   0.41047238  0.23192645  0.98119633
   0.22572581  0.53728148  0.03711484
   0.36499239  0.06918449  0.48749094
   0.33591003  0.82014678  0.81013092
   0.50947840  0.75921995  0.17129664
   0.44692755  0.41883046  0.44401393
   0.77236372  0.70800104  0.54841686
   0.70508869  0.46384256  0.15262373
   0.53959128  0.61661685  0.40324429
   0.37235608  0.65507794  0.63585646
   0.47343641  0.92666565  0.03020057
   0.58264845  0.29083684  0.56630968
   0.63341731  0.84460056  0.84782536
   0.57938392  0.32124634  0.80994674
   0.39272517  0.45898089  0.19163104
   0.39631069  0.85022004  0.42809198
   0.73674320  0.49745907  0.58887200
   0.88791002  0.07755716  0.84119790
   0.91920278  0.86162288  0.32618364
   0.27546243  0.24683411  0.28089312
   0.17042026  0.62855044  0.81420678
   0.14874585  0.37600297  0.55242140
   0.99883123  0.53433222  0.67789119
   0.13362182  0.91080558  0.59945663
   0.70386329  0.98229030  0.16780760
   0.89047151  0.85073033  0.95897191
   0.87218086  0.94813787  0.56464770
   0.82492075  0.10764346  0.35685152
   0.09613963  0.31133090  0.84074508
   0.52201950  0.22496598  0.30518519
   0.79825314  0.31523059  0.74642642
   0.24054669  0.67481563  0.27215895
Direct configuration=     2
   0.84777442  0.60519740  0.67319984
   0.48010486  0.87648902  0.88585505
   0.39526603  0.34173318  0.28669384
   0.54174317  0.76469273  0.33762824
   0.22689098  0.52188236  0.18840429
   0.66402099  0.35862227  0.68630826
   0.07614603  0.76507484  0.30845442
   0.80052319  0.96833104  0.28135945
   0.96998890  0.01653675  0.96896608
   0.15739617  0.38745874  0.71965749
   0.53006803  0.16110414  0.89589451
   0.91000827  0.80343325  0.51618974
   0.90373255  0.45660520  0.12505347
   0.26085535  0.90976776  0.46366515
   0.33488311  0.64890714  0.78871139
   0.29464981  0.53337018  0.48211224
   0.58872227  0.73537998  0.57811910
   0.06931046  0.27304456  0.34509150
   0.94804589  0.18066294  0.62752449
   0.22684855  0.77652791  0.05670291
   0.67357635  0.45952353  0.40292772
   0.77158326  0.24240535  0.21913527
   0.43988387  0.09342779  0.17325050
   0.48079485  0.43870252  0.00612881
   0.08630533  0.43044173  0.98663309
   0.11190628  0.82238658  0.74431355
   0.71026543  0.92841388  0.98540463
   0.97853837  0.60516129  0.84448070
   0.29603740  0.23976327  0.56885723
   0.21287684  0.10864473  0.81621767
   0.84827736  0.86993660  0.73623544
   0.56048683  0.11800043  0.45283975
   0.71227528  0.63508776  0.00694395
   0.81046856  0.23293318  0.91246766
   0.47706363  0.64843544  0.90028875
   0.02986754  0.70034919  0.45842093
   0.98141123  0.10236926  0.10120575
   0.48338070  0.04395100  0.78911083
   0.15562367  0.13414322  0.63582039
   0.94135847  0.58086866  0.00505583
   0.80737090  0.65117015  0.82374463
   0.90778360  0.33294732  0.02613913
   0.96296945  0.76591759  0.67950024
   0.87972134  0.43025312  0.28842696
   0.66796466  0.89192746  0.38978707
   0.32085566  0.39797214  0.71863661
   0.08622075  0.43543827  0.20613775
   0.18097607  0.90638645  0.30639555
   0.04196146  0.72318663  0.16223261
   0.67197419  0.11750465  0.98776393
   0.12003896  0.97507948  0.90972033
   0.41044428  0.23172358  0.98107415
   0.22541458  0.53725114  0.03695312
   0.36483096  0.06934608  0.48775682
   0.33602792  0.82004959  0.81018645
   0.50940192  0.75928224  0.17147612
   0.44698415  0.41893360  0.44371161
   0.77227804  0.70799756  0.54837172
   0.70500230  0.46375164  0.15242913
   0.53966791  0.61676816  0.40323303
   0.37270767  0.65479846  0.63585799
   0.47366376  0.92636549  0.03014031
   0.58231737  0.29088230  0.56603833
   0.63367410  0.84472496  0.84788234
   0.57943956  0.32129321  0.80987628
   0.39271339  0.45877011  0.19183382
   0.39603980  0.85037500  0.42838563
   0.73684370  0.49755736  0.58898566
   0.88783716  0.07732248  0.84145079
   0.91918612  0.86159618  0.32584709
   0.27548408  0.24707152  0.28106392
   0.17033144  0.62850220  0.81435403
   0.14874085  0.37595418  0.55253300
   0.99881835  0.53415434  0.67802057
   0.13340159  0.91124132  0.59949386
   0.70411366  0.98229919  0.16779897
   0.89043472  0.85064598  0.95897805
   0.87211648  0.94813643  0.56485351
   0.82486621  0.10764045  0.35696629
   0.09634740  0.31114872  0.84074567
   0.52218454  0.22516185  0.30552664
   0.79870323  0.31544255  0.74645603
   0.24030603  0.67487815  0.27227515
Direct configuration=     3
   0.84757997  0.60504138  0.67301059
   0.48019125  0.87625695  0.88630386
   0.39523043  0.34196204  0.28668310
   0.54157596  0.76461700  0.33753960
   0.22675553  0.52197651  0.18808519
   0.66385263  0.35872315  0.68577597
   0.07650439  0.76502840  0.30852712
   0.80037186  0.96868116  0.28148143
   0.96990448  0.01672074  0.96908391
   0.15764606  0.38751082  0.71978711
   0.53014392  0.16107667  0.89589098
   0.90972257  0.80331784  0.51645239
   0.90377495  0.45670717  0.12511981
   0.26061114  0.91005155  0.46403335
   0.33486181  0.64911123  0.78852867
   0.29477782  0.53331568  0.48188275
   0.58909858  0.73514382  0.57788237
   0.06932554  0.27328845  0.34519062
   0.94788943  0.18076155  0.62727839
   0.22686904  0.77646808  0.05698309
   0.67335464  0.45973135  0.40308741
   0.77146237  0.24225936  0.21911373
   0.43981856  0.09355197  0.17303453
   0.48095108  0.43892110  0.00598847
   0.08645466  0.43022570  0.98652130
   0.11153539  0.82220917  0.74476147
   0.71024754  0.92831358  0.98544548
   0.97857903  0.60533381  0.84459930
   0.29600544  0.23988040  0.56911680
   0.21282805  0.10891009  0.81624461
   0.84841661  0.87010338  0.73603001
   0.56067526  0.11773083  0.45266954
   0.71254258  0.63488610  0.00673047
   0.81081912  0.23303054  0.91242818
   0.47736857  0.64866262  0.90010976
   0.03000083  0.70027161  0.45864836
   0.98107454  0.10249757  0.10112124
   0.48312413  0.04369816  0.78918764
   0.15564237  0.13408054  0.63565200
   0.94145644  0.58062717  0.00528848
   0.80726388  0.65122719  0.82347792
   0.90784871  0.33281718  0.02609508
   0.96279253  0.76572650  0.67964262
   0.87973653  0.42994210  0.28814922
   0.66794094  0.89172024  0.38968114
   0.32083754  0.39795962  0.71842673
   0.08613864  0.43554313  0.20608251
   0.18116970  0.90649683  0.30645135
   0.04188825  0.72329665  0.16201089
   0.67187723  0.11725157  0.98771423
   0.12009242  0.97501462  0.90974696
   0.41041625  0.23152065  0.98095345
   0.22510626  0.53722278  0.03678431
   0.36466904  0.06950708  0.48802155
   0.33614550  0.81995465  0.81024332
   0.50932746  0.75934302  0.17166018
   0.44703798  0.41903222  0.44340542
   0.77219890  0.70799466  0.54832635
   0.70491630  0.46366236  0.15223123
   0.53974487  0.61692281  0.40322221
   0.37305957  0.65451983  0.63585698
   0.47388863  0.92607005  0.03008421
   0.58198910  0.29092504  0.56576666
   0.63393117  0.84484729  0.84793648
   0.57948902  0.32133773  0.80981454
   0.39270006  0.45856738  0.19203186
   0.39577910  0.85052296  0.42867612
   0.73694356  0.49765326  0.58910427
   0.88776428  0.07708892  0.84170092
   0.91916932  0.86156902  0.32551306
   0.27550039  0.24730478  0.28123364
   0.17024453  0.62845441  0.81450118
   0.14873461  0.37590514  0.55264299
   0.99880450  0.53397426  0.67814894
   0.13318752  0.91167522  0.59952315
   0.70435875  0.98230858  0.16778428
   0.89039830  0.85056567  0.95898399
   0.87205039  0.94813973  0.56505975
   0.82481292  0.10763956  0.35708324
   0.09655294  0.31096558  0.84074873
   0.52235055  0.22535872  0.30586503
   0.79915947  0.31565188  0.74648633
   0.24006675  0.67493569  0.27239169
Direct configuration=     4
   0.84738621  0.60488540  0.67281667
   0.48027468  0.87602436  0.88674072
   0.39520669  0.34218398  0.28669018
   0.54140782  0.76454631  0.33744398
   0.22662019  0.52207445  0.18777674
   0.66368539  0.35882763  0.68523494
   0.07686316  0.76498501  0.30860178
   0.80022634  0.96902449  0.28161382
   0.96981991  0.01689646  0.96919982
   0.15789823  0.38756657  0.71990867
   0.53022346  0.16104927  0.89588619
   0.90944118  0.80320117  0.51671002
   0.90381315  0.45681501  0.12518993
   0.26035635  0.91034472  0.46440477
   0.33484329  0.64931610  0.78835205
   0.29490353  0.53326347  0.48165509
   0.58946797  0.73490931  0.57764849
   0.06934027  0.27353134  0.34528927
   0.94773347  0.18085867  0.62703429
   0.22688940  0.77640857  0.05726250
   0.67313337  0.45993721  0.40324412
   0.77134117  0.24211496  0.21908994
   0.43975282  0.09367423  0.17281841
   0.48110727  0.43913931  0.00584690
   0.08660192  0.43000955  0.98641064
   0.11117204  0.82203249  0.74521314
   0.71023172  0.92821512  0.98548856
   0.97862429  0.60550809  0.84471337
   0.29597490  0.23999622  0.56937480
   0.21277859  0.10917460  0.81626961
   0.84854818  0.87027650  0.73583220
   0.56086113  0.11746221  0.45250235
   0.71280971  0.63468473  0.00651789
   0.81116659  0.23312583  0.91238786
   0.47766980  0.64888695  0.89993039
   0.03013473  0.70019403  0.45887327
   0.98073852  0.10262588  0.10103896
   0.48286818  0.04344627  0.78926563
   0.15566116  0.13402107  0.63548634
   0.94155237  0.58038221  0.00552788
   0.80715317  0.65128372  0.82321184
   0.90791486  0.33268650  0.02605139
   0.96261687  0.76552995  0.67978305
   0.87975197  0.42963054  0.28787430
   0.66791419  0.89151133  0.38957554
   0.32081875  0.39794733  0.71821880
   0.08605844  0.43564761  0.20602655
   0.18136210  0.90660627  0.30651020
   0.04181433  0.72340581  0.16178697
   0.67177737  0.11700299  0.98766202
   0.12014676  0.97494906  0.90977317
   0.41038832  0.23131778  0.98083430
   0.22480107  0.53719643  0.03660845
   0.36450671  0.06966741  0.48828498
   0.33626269  0.81986204  0.81030149
   0.50925501  0.75940226  0.17184864
   0.44708902  0.41912629  0.44309560
   0.77212646  0.70799228  0.54828071
   0.70483074  0.46357482  0.15203016
   0.53982208  0.61708062  0.40321184
   0.37341160  0.65424217  0.63585340
   0.47411090  0.92577959  0.03003268
   0.58166380  0.29096503  0.56549482
   0.63418826  0.84496749  0.84798774
   0.57953244  0.32137991  0.80976134
   0.39268515  0.45837316  0.19222472
   0.39552869  0.85066384  0.42896333
   0.73704267  0.49774666  0.58922764
   0.88769139  0.07685668  0.84194810
   0.91915235  0.86154144  0.32518176
   0.27551133  0.24753375  0.28140223
   0.17015961  0.62840710  0.81464810
   0.14872714  0.37585588  0.55275132
   0.99878962  0.53379214  0.67827622
   0.13297965  0.91210687  0.59954471
   0.70459831  0.98231848  0.16776342
   0.89036227  0.85048939  0.95898971
   0.87198264  0.94814772  0.56526625
   0.82476090  0.10764088  0.35720239
   0.09675615  0.31078156  0.84075422
   0.52251739  0.22555640  0.30620008
   0.79962105  0.31585867  0.74651710
   0.23982902  0.67498823  0.27250849
Direct configuration=     5
   0.84719344  0.60472954  0.67261834
   0.48035526  0.87579109  0.88716484
   0.39519484  0.34239843  0.28671539
   0.54123883  0.76448084  0.33734150
   0.22648501  0.52217610  0.18747925
   0.66351985  0.35893535  0.68468610
   0.07722203  0.76494463  0.30867815
   0.80008688  0.96936057  0.28175660
   0.96973539  0.01706366  0.96931372
   0.15815238  0.38762590  0.72002215
   0.53030661  0.16102181  0.89588001
   0.90916441  0.80308332  0.51696243
   0.90384719  0.45692841  0.12526352
   0.26009124  0.91064709  0.46477922
   0.33482749  0.64952167  0.78818165
   0.29502690  0.53321358  0.48142939
   0.58983017  0.73467657  0.57741755
   0.06935467  0.27377315  0.34538741
   0.94757811  0.18095422  0.62679231
   0.22690962  0.77634942  0.05754098
   0.67291263  0.46014103  0.40339778
   0.77121973  0.24197221  0.21906390
   0.43968674  0.09379460  0.17260226
   0.48126333  0.43935705  0.00570418
   0.08674697  0.42979332  0.98630115
   0.11081641  0.82185680  0.74566809
   0.71021800  0.92811856  0.98553388
   0.97867398  0.60568403  0.84482291
   0.29594579  0.24011065  0.56963111
   0.21272845  0.10943812  0.81629266
   0.84867200  0.87045591  0.73564217
   0.56104433  0.11719467  0.45233825
   0.71307657  0.63448374  0.00630631
   0.81151078  0.23321896  0.91234671
   0.47796724  0.64910838  0.89975072
   0.03026913  0.70011659  0.45909553
   0.98040329  0.10275421  0.10095904
   0.48261297  0.04319550  0.78934481
   0.15567996  0.13396487  0.63532351
   0.94164620  0.58013395  0.00577376
   0.80703888  0.65133970  0.82294660
   0.90798205  0.33255545  0.02600817
   0.96244254  0.76532802  0.67992143
   0.87976763  0.42931852  0.28760244
   0.66788441  0.89130084  0.38947031
   0.32079943  0.39793528  0.71801294
   0.08598020  0.43575162  0.20596990
   0.18155313  0.90671470  0.30657206
   0.04173983  0.72351412  0.16156115
   0.67167467  0.11675902  0.98760732
   0.12020190  0.97488287  0.90979897
   0.41036048  0.23111512  0.98071679
   0.22449922  0.53717213  0.03642560
   0.36434406  0.06982699  0.48854704
   0.33637942  0.81977182  0.81036092
   0.50918457  0.75945991  0.17204137
   0.44713733  0.41921584  0.44278232
   0.77206081  0.70799039  0.54823479
   0.70474564  0.46348905  0.15182602
   0.53989948  0.61724144  0.40320195
   0.37376359  0.65396559  0.63584722
   0.47433047  0.92549435  0.02998616
   0.58134157  0.29100228  0.56522293
   0.63444520  0.84508549  0.84803609
   0.57957001  0.32141980  0.80971650
   0.39266866  0.45818787  0.19241194
   0.39528860  0.85079763  0.42924715
   0.73714091  0.49783750  0.58935563
   0.88761844  0.07662588  0.84219212
   0.91913518  0.86151351  0.32485336
   0.27551691  0.24775834  0.28156960
   0.17007678  0.62836028  0.81479470
   0.14871846  0.37580644  0.55285792
   0.99877371  0.53360810  0.67840239
   0.13277797  0.91253600  0.59955880
   0.70483216  0.98232892  0.16773633
   0.89032666  0.85041716  0.95899522
   0.87191329  0.94816036  0.56547289
   0.82471020  0.10764456  0.35732376
   0.09695699  0.31059672  0.84076213
   0.52268492  0.22575479  0.30653161
   0.80008726  0.31606295  0.74654809
   0.23959302  0.67503573  0.27262544
Direct configuration=     6
   0.84700193  0.60457385  0.67241586
   0.48043314  0.87555699  0.88757551
   0.39519487  0.34260489  0.28675898
   0.54106909  0.76442071  0.33723233
   0.22635006  0.52228132  0.18719297
   0.66335653  0.35904595  0.68413032
   0.07758073  0.76490720  0.30875599
   0.79995370  0.96968901  0.28190974
   0.96965105  0.01722213  0.96942552
   0.15840821  0.38768876  0.72012757
   0.53039328  0.16099422  0.89587235
   0.90889252  0.80296438  0.51720944
   0.90387712  0.45704710  0.12534032
   0.25981610  0.91095850  0.46515653
   0.33481438  0.64972781  0.78801758
   0.29514785  0.53316601  0.48120572
   0.59018494  0.73444572  0.57718967
   0.06936872  0.27401380  0.34548499
   0.94742342  0.18104820  0.62655252
   0.22692969  0.77629066  0.05781846
   0.67269250  0.46034271  0.40354833
   0.77109807  0.24183117  0.21903562
   0.43962034  0.09391309  0.17238618
   0.48141923  0.43957422  0.00556037
   0.08688967  0.42957705  0.98619289
   0.11046864  0.82168233  0.74612594
   0.71020644  0.92802391  0.98558144
   0.97872794  0.60586157  0.84492797
   0.29591811  0.24022365  0.56988562
   0.21267765  0.10970056  0.81631375
   0.84878800  0.87064157  0.73546007
   0.56122479  0.11692824  0.45217727
   0.71334309  0.63428318  0.00609576
   0.81185152  0.23330987  0.91230471
   0.47826077  0.64932685  0.89957085
   0.03040392  0.70003939  0.45931506
   0.98006901  0.10288257  0.10088158
   0.48235860  0.04294598  0.78942522
   0.15569875  0.13391198  0.63516360
   0.94173789  0.57988256  0.00602590
   0.80692105  0.65139508  0.82268232
   0.90805027  0.33242420  0.02596555
   0.96226966  0.76512080  0.68005769
   0.87978346  0.42900617  0.28733379
   0.66785162  0.89108888  0.38936552
   0.32077973  0.39792346  0.71780922
   0.08590396  0.43585515  0.20591257
   0.18174269  0.90682207  0.30663690
   0.04166485  0.72362163  0.16133370
   0.67156917  0.11651978  0.98755016
   0.12025778  0.97481613  0.90982438
   0.41033271  0.23091280  0.98060094
   0.22420081  0.53714988  0.03623573
   0.36418114  0.06998575  0.48880764
   0.33649561  0.81968402  0.81042158
   0.50911611  0.75951596  0.17223823
   0.44718294  0.41930091  0.44246571
   0.77200205  0.70798892  0.54818856
   0.70466103  0.46340508  0.15161890
   0.53997700  0.61740512  0.40319257
   0.37411542  0.65369014  0.63583839
   0.47454727  0.92521454  0.02994503
   0.58102256  0.29103678  0.56495112
   0.63470179  0.84520126  0.84808152
   0.57960190  0.32145744  0.80967982
   0.39265056  0.45801188  0.19259314
   0.39505881  0.85092430  0.42952751
   0.73723819  0.49792571  0.58948810
   0.88754541  0.07639664  0.84243282
   0.91911780  0.86148527  0.32452799
   0.27551714  0.24797843  0.28173570
   0.16999611  0.62831399  0.81494088
   0.14870856  0.37575686  0.55296275
   0.99875669  0.53342222  0.67852740
   0.13258246  0.91296229  0.59956559
   0.70506016  0.98233991  0.16770290
   0.89029149  0.85034897  0.95900053
   0.87184237  0.94817759  0.56567952
   0.82466080  0.10765070  0.35744740
   0.09715544  0.31041115  0.84077243
   0.52285307  0.22595376  0.30685946
   0.80055746  0.31626485  0.74657910
   0.23935886  0.67507818  0.27274248
Direct configuration=     7
   0.84681194  0.60441835  0.67220949
   0.48050845  0.87532185  0.88797212
   0.39520675  0.34280286  0.28682119
   0.54089864  0.76436606  0.33711660
   0.22621536  0.52239002  0.18691806
   0.66319589  0.35915914  0.68356839
   0.07793906  0.76487264  0.30883505
   0.79982696  0.97000950  0.28207321
   0.96956704  0.01737169  0.96953516
   0.15866542  0.38775507  0.72022496
   0.53048343  0.16096637  0.89586310
   0.90862573  0.80284442  0.51745092
   0.90390300  0.45717078  0.12542007
   0.25953123  0.91127879  0.46553655
   0.33480392  0.64993447  0.78785989
   0.29526635  0.53312080  0.48098413
   0.59053211  0.73421683  0.57696494
   0.06938247  0.27425327  0.34558201
   0.94726941  0.18114062  0.62631495
   0.22694959  0.77623232  0.05809489
   0.67247305  0.46054221  0.40369574
   0.77097623  0.24169187  0.21900510
   0.43955367  0.09402973  0.17217026
   0.48157492  0.43979077  0.00541556
   0.08702992  0.42936071  0.98608586
   0.11012878  0.82150927  0.74658636
   0.71019706  0.92793119  0.98563126
   0.97878601  0.60604064  0.84502862
   0.29589186  0.24033519  0.57013828
   0.21262619  0.10996185  0.81633291
   0.84889616  0.87083344  0.73528599
   0.56140247  0.11666294  0.45201942
   0.71360926  0.63408309  0.00588627
   0.81218872  0.23339851  0.91226184
   0.47855036  0.64954230  0.89939079
   0.03053902  0.69996252  0.45953180
   0.97973577  0.10301100  0.10080665
   0.48210511  0.04269780  0.78950687
   0.15571751  0.13386243  0.63500663
   0.94182742  0.57962816  0.00628408
   0.80679980  0.65144981  0.82241911
   0.90811951  0.33229291  0.02592365
   0.96209828  0.76490836  0.68019178
   0.87979940  0.42869355  0.28706850
   0.66781585  0.89087551  0.38926120
   0.32075979  0.39791189  0.71760770
   0.08582975  0.43595819  0.20585457
   0.18193074  0.90692840  0.30670471
   0.04158947  0.72372837  0.16110490
   0.67146095  0.11628534  0.98749057
   0.12031433  0.97474887  0.90984940
   0.41030504  0.23071089  0.98048678
   0.22390593  0.53712972  0.03603885
   0.36401800  0.07014367  0.48906674
   0.33661121  0.81959866  0.81048346
   0.50904956  0.75957042  0.17243912
   0.44722591  0.41938155  0.44214590
   0.77195026  0.70798785  0.54814198
   0.70457691  0.46332293  0.15140889
   0.54005460  0.61757153  0.40318370
   0.37446704  0.65341586  0.63582693
   0.47476127  0.92494027  0.02990964
   0.58070682  0.29106856  0.56467946
   0.63495790  0.84531478  0.84812404
   0.57962831  0.32149288  0.80965105
   0.39263084  0.45784552  0.19276797
   0.39483924  0.85104387  0.42980438
   0.73733440  0.49801123  0.58962489
   0.88747226  0.07616903  0.84267009
   0.91910018  0.86145675  0.32420570
   0.27551203  0.24819399  0.28190050
   0.16991768  0.62826827  0.81508659
   0.14869747  0.37570717  0.55306580
   0.99873853  0.53323461  0.67865124
   0.13239306  0.91338553  0.59956532
   0.70528220  0.98235146  0.16766312
   0.89025680  0.85028479  0.95900563
   0.87176992  0.94819933  0.56588607
   0.82461274  0.10765939  0.35757334
   0.09735150  0.31022488  0.84078507
   0.52302175  0.22615325  0.30718349
   0.80103107  0.31646444  0.74660992
   0.23912657  0.67511561  0.27285955
Direct configuration=     8
   0.84662365  0.60426308  0.67199947
   0.48058138  0.87508543  0.88835408
   0.39523044  0.34299196  0.28690222
   0.54072753  0.76431703  0.33699448
   0.22608093  0.52250214  0.18665461
   0.66303833  0.35927460  0.68300102
   0.07829681  0.76484090  0.30891515
   0.79970678  0.97032175  0.28224698
   0.96948348  0.01751216  0.96964260
   0.15892378  0.38782479  0.72031439
   0.53057702  0.16093818  0.89585215
   0.90836421  0.80272350  0.51768677
   0.90392487  0.45729919  0.12550250
   0.25923688  0.91160788  0.46591920
   0.33479608  0.65014162  0.78770861
   0.29538237  0.53307796  0.48076465
   0.59087156  0.73398994  0.57674339
   0.06939589  0.27449153  0.34567847
   0.94711611  0.18123148  0.62607959
   0.22696934  0.77617441  0.05837023
   0.67225429  0.46073952  0.40384000
   0.77085422  0.24155429  0.21897236
   0.43948675  0.09414459  0.17195451
   0.48173039  0.44000670  0.00526976
   0.08716762  0.42914427  0.98598006
   0.10979685  0.82133779  0.74704912
   0.71018991  0.92784037  0.98568334
   0.97884804  0.60622122  0.84512493
   0.29586704  0.24044525  0.57038907
   0.21257407  0.11022197  0.81635013
   0.84899646  0.87103153  0.73512000
   0.56157735  0.11639875  0.45186471
   0.71387508  0.63388348  0.00567781
   0.81252230  0.23348485  0.91221807
   0.47883599  0.64975474  0.89921060
   0.03067438  0.69988606  0.45974573
   0.97940358  0.10313955  0.10073434
   0.48185255  0.04245101  0.78958982
   0.15573622  0.13381623  0.63485263
   0.94191480  0.57937086  0.00654810
   0.80667517  0.65150383  0.82215700
   0.90818980  0.33216171  0.02588258
   0.96192844  0.76469073  0.68032367
   0.87981543  0.42838067  0.28680668
   0.66777711  0.89066076  0.38915735
   0.32073972  0.39790057  0.71740838
   0.08575759  0.43606072  0.20579594
   0.18211729  0.90703370  0.30677549
   0.04151380  0.72383437  0.16087495
   0.67135002  0.11605571  0.98742856
   0.12037151  0.97468113  0.90987406
   0.41027744  0.23050941  0.98037433
   0.22361464  0.53711169  0.03583499
   0.36385467  0.07030073  0.48932431
   0.33672619  0.81951577  0.81054654
   0.50898486  0.75962328  0.17264392
   0.44726629  0.41945784  0.44182295
   0.77190550  0.70798712  0.54809503
   0.70449328  0.46324260  0.15119603
   0.54013226  0.61774058  0.40317536
   0.37481843  0.65314270  0.63581280
   0.47497240  0.92467167  0.02988037
   0.58039436  0.29109766  0.56440796
   0.63521344  0.84542609  0.84816364
   0.57964941  0.32152616  0.80962996
   0.39260946  0.45768908  0.19293610
   0.39462976  0.85115643  0.43007777
   0.73742945  0.49809398  0.58976587
   0.88739897  0.07594309  0.84290386
   0.91908231  0.86142792  0.32388653
   0.27550164  0.24840500  0.28206400
   0.16984151  0.62822311  0.81523178
   0.14868517  0.37565739  0.55316705
   0.99871923  0.53304531  0.67877391
   0.13220968  0.91380559  0.59955819
   0.70549822  0.98236357  0.16761695
   0.89022260  0.85022462  0.95901052
   0.87169598  0.94822552  0.56609246
   0.82456601  0.10767076  0.35770167
   0.09754525  0.31003792  0.84080000
   0.52319090  0.22635322  0.30750363
   0.80150762  0.31666184  0.74664037
   0.23889618  0.67514800  0.27297662
Direct configuration=     9
   0.84643727  0.60410808  0.67178599
   0.48065208  0.87484750  0.88872094
   0.39526588  0.34317180  0.28700228
   0.54055574  0.76427371  0.33686608
   0.22594674  0.52261762  0.18640270
   0.66288422  0.35939208  0.68242883
   0.07865386  0.76481194  0.30899609
   0.79959322  0.97062551  0.28243097
   0.96940049  0.01764341  0.96974782
   0.15918304  0.38789783  0.72039594
   0.53067398  0.16090950  0.89583940
   0.90810811  0.80260169  0.51791696
   0.90394279  0.45743210  0.12558737
   0.25893328  0.91194566  0.46630446
   0.33479082  0.65034927  0.78756373
   0.29549591  0.53303751  0.48054726
   0.59120318  0.73376507  0.57652500
   0.06940900  0.27472862  0.34577438
   0.94696353  0.18132079  0.62584641
   0.22698893  0.77611696  0.05864453
   0.67203619  0.46093464  0.40398111
   0.77073202  0.24141844  0.21893739
   0.43941959  0.09425769  0.17173896
   0.48188566  0.44022201  0.00512301
   0.08730271  0.42892766  0.98587550
   0.10947280  0.82116804  0.74751405
   0.71018501  0.92775145  0.98573769
   0.97891387  0.60640331  0.84521703
   0.29584363  0.24055381  0.57063799
   0.21252126  0.11048091  0.81636542
   0.84908894  0.87123582  0.73496213
   0.56174942  0.11613559  0.45171311
   0.71414059  0.63368434  0.00547035
   0.81285226  0.23356885  0.91217337
   0.47911770  0.64996418  0.89903030
   0.03080995  0.69981009  0.45995681
   0.97907243  0.10326827  0.10066472
   0.48160090  0.04220566  0.78967413
   0.15575487  0.13377341  0.63470160
   0.94200008  0.57911073  0.00681781
   0.80654721  0.65155713  0.82189600
   0.90826115  0.33203071  0.02584243
   0.96176017  0.76446795  0.68045335
   0.87983155  0.42806751  0.28654840
   0.66773543  0.89044467  0.38905399
   0.32071965  0.39788953  0.71721125
   0.08568749  0.43616272  0.20573668
   0.18230233  0.90713801  0.30684921
   0.04143787  0.72393971  0.16064406
   0.67123636  0.11583090  0.98736413
   0.12042928  0.97461295  0.90989837
   0.41024989  0.23030837  0.98026358
   0.22332695  0.53709578  0.03562413
   0.36369119  0.07045698  0.48958035
   0.33684052  0.81943534  0.81061083
   0.50892195  0.75967454  0.17285255
   0.44730412  0.41952984  0.44149687
   0.77186782  0.70798666  0.54804765
   0.70441012  0.46316408  0.15098034
   0.54020995  0.61791219  0.40316757
   0.37516961  0.65287063  0.63579598
   0.47518072  0.92440881  0.02985755
   0.58008515  0.29112411  0.56413663
   0.63546834  0.84553520  0.84820030
   0.57966542  0.32155735  0.80961630
   0.39258640  0.45754282  0.19309726
   0.39443019  0.85126208  0.43034776
   0.73752327  0.49817390  0.58991092
   0.88732546  0.07571885  0.84313409
   0.91906414  0.86139882  0.32357050
   0.27548599  0.24861154  0.28222617
   0.16976762  0.62817851  0.81537645
   0.14867167  0.37560754  0.55326650
   0.99869876  0.53285432  0.67889543
   0.13203226  0.91422233  0.59954440
   0.70570822  0.98237627  0.16756438
   0.89018891  0.85016840  0.95901522
   0.87162057  0.94825611  0.56629864
   0.82452062  0.10768493  0.35783249
   0.09773676  0.30985028  0.84081717
   0.52336050  0.22655364  0.30781983
   0.80198667  0.31685720  0.74667027
   0.23866769  0.67517536  0.27309366
Direct configuration=    10
   0.84625300  0.60395334  0.67156922
   0.48072071  0.87460779  0.88907226
   0.39531300  0.34334208  0.28712155
   0.54038327  0.76423621  0.33673151
   0.22581280  0.52273643  0.18616233
   0.66273384  0.35951133  0.68185239
   0.07901012  0.76478569  0.30907768
   0.79948632  0.97092061  0.28262515
   0.96931817  0.01776534  0.96985081
   0.15944298  0.38797411  0.72046973
   0.53077427  0.16088023  0.89582474
   0.90785756  0.80247904  0.51814146
   0.90395682  0.45756927  0.12567447
   0.25862067  0.91229208  0.46669234
   0.33478810  0.65055744  0.78742520
   0.29560697  0.53299944  0.48033192
   0.59152695  0.73354220  0.57630977
   0.06942179  0.27496458  0.34586978
   0.94681167  0.18140858  0.62561536
   0.22700836  0.77605997  0.05891782
   0.67181874  0.46112759  0.40411909
   0.77060963  0.24128426  0.21890018
   0.43935219  0.09436910  0.17152359
   0.48204074  0.44043675  0.00497530
   0.08743513  0.42871079  0.98577214
   0.10915653  0.82100013  0.74798105
   0.71018239  0.92766437  0.98579435
   0.97898336  0.60658691  0.84530501
   0.29582161  0.24066088  0.57088509